<?xml version="1.0" encoding="UTF-8"?>

<!-- generated on 수  9/ 4 17:38:24 2019 by Eclipse SUMO GUI Version 1.1.0
<configuration xmlns:xsi="http://www.w3.org/2001/XMLSchema-instance" xsi:noNamespaceSchemaLocation="http://sumo.dlr.de/xsd/sumoConfiguration.xsd">

    <input>
        <net-file value="/Users/leehoon/2019/Summer_intern/flow/flow/core/kernel/scenario/debug/cfg/highway-ramp_20190904-1738021567586282.953.net.xml"/>
        <route-files value="/Users/leehoon/2019/Summer_intern/flow/flow/core/kernel/scenario/debug/cfg/highway-ramp_20190904-1738021567586282.953.rou.xml"/>
        <additional-files value="/Users/leehoon/2019/Summer_intern/flow/flow/core/kernel/scenario/debug/cfg/highway-ramp_20190904-1738021567586282.953.add.xml"/>
    </input>

    <output>
        <emission-output value="./data/highway-ramp_20190904-1738021567586282.953-emission.xml"/>
    </output>

    <time>
        <begin value="0"/>
        <step-length value="0.2"/>
    </time>

    <processing>
        <collision.check-junctions value="true"/>
        <time-to-teleport value="-1"/>
    </processing>

    <report>
        <no-step-log value="true"/>
    </report>

    <traci_server>
        <remote-port value="56438"/>
        <num-clients value="1"/>
    </traci_server>

    <gui_only>
        <gui-settings-file value="/Users/leehoon/2019/Summer_intern/flow/flow/core/kernel/scenario/debug/cfg/highway-ramp_20190904-1738021567586282.953.gui.cfg"/>
        <tracker-interval value="0.2"/>
    </gui_only>

</configuration>
-->

<emission-export xmlns:xsi="http://www.w3.org/2001/XMLSchema-instance" xsi:noNamespaceSchemaLocation="http://sumo.dlr.de/xsd/emission_file.xsd">
</emission-export>
